% Model:              3_full.mph
% Version:            COMSOL 5.6.0.401
% Date:               Feb 11 2023, 13:59
% Table:              Eigenfrequencies (Long wire) - 
% d_t_1                                           d_t_2                                             d_beam_w                                          Frequency (Hz)                                    Quality factor for eigenvalue (1)                 abs(solid.Qted) (W)
1                                                 3.0000000000000275                                5.0000000000000755                                146893.3506146738+4.080430168954004i              17999.73832812086                                 2.8308132430058497E-15
1                                                 3.0000000000000275                                5.0000000000000755                                293819.8129268685+8.161680907681799i              17999.957132011892                                1.514279407952985E-14
1                                                 3.0000000000000275                                5.0000000000000755                                440807.1331430919+12.24437733913582i              18000.389931391863                                4.271749235910663E-14
1                                                 3.0000000000000275                                5.0000000000000755                                587886.516550144+18.57203549523802i               15827.196666216263                                8.665921971085024E-14
1                                                 3.0000000000000875                                7.000000000000226                                 146875.54347841803+4.079793628304438i             18000.364339441363                                2.822864363383152E-15
1                                                 3.0000000000000875                                7.000000000000226                                 293778.543249653+8.1603779119036i                 18000.30258532015                                 1.5116012559893164E-14
1                                                 3.0000000000000875                                7.000000000000226                                 440743.930069027+12.243281491886568i              17999.41994150475                                 4.268719032394391E-14
1                                                 3.0000000000000875                                7.000000000000226                                 587803.3444501502+16.38532371155204i              17936.885312670132                                8.01036593171538E-14
1                                                 3.000000000000107                                 9.000000000000153                                 146872.02014126454+4.079265164749243i             18002.26440419494                                 2.818759482182261E-15
1                                                 3.000000000000107                                 9.000000000000153                                 293760.617641041+8.159877686761341i               18000.307658878937                                1.5099876215673767E-14
1                                                 3.000000000000107                                 9.000000000000153                                 440714.66457892454+12.2403705906682i              18002.5049615289                                  4.266401860071469E-14
1                                                 3.000000000000107                                 9.000000000000153                                 587764.7314393108+15.127229725538031i             19427.37507473219                                 8.112901783276246E-14
1                                                 5.0000000000000275                                5.0000000000000275                                146890.006648569+4.080428633563947i               17999.33534436999                                 2.829826052885977E-15
1                                                 5.0000000000000275                                5.0000000000000275                                293811.7652318327+8.16151149557407i               17999.83773784779                                 1.5138395503728015E-14
1                                                 5.0000000000000275                                5.0000000000000275                                440795.0723213642+12.243888136404298i             18000.61661012599                                 4.270698531001696E-14
1                                                 5.0000000000000275                                5.0000000000000275                                587871.9836202326+16.372770514251936i             17952.733873247318                                8.560850132070292E-14
1                                                 4.999999999999969                                 7.000000000000079                                 146868.4869987732+4.079937679816626i              17998.86401762119                                 2.8216146286307375E-15
1                                                 4.999999999999969                                 7.000000000000079                                 293768.75055827596+8.160074911764305i             18000.370936224506                                1.5110870033604445E-14
1                                                 4.999999999999969                                 7.000000000000079                                 440730.96617422474+12.243360469610103i            17998.774407899004                                4.26753704099671E-14
1                                                 4.999999999999969                                 7.000000000000079                                 587787.4259353594+16.521635138393158i             17788.415644449065                                7.796997929286498E-14
1                                                 4.999999999999859                                 8.999999999999988                                 146857.54641786552+4.079360466956736i             18000.069815774645                                2.8171736373935347E-15
1                                                 4.999999999999859                                 8.999999999999988                                 293746.7574224955+8.159679043362058i              17999.89655606896                                 1.5093483518778502E-14
1                                                 4.999999999999859                                 8.999999999999988                                 440697.3010537342+12.241538240912197i             18000.078600452245                                4.265326590685726E-14
1                                                 4.999999999999859                                 8.999999999999988                                 587741.2913697+16.330102298075257i                17995.640218340017                                7.672280259552232E-14
1                                                 7.000000000000109                                 5.000000000000139                                 146894.70062485835+4.080247608156983i             18000.70911520012                                 2.829635192476822E-15
1                                                 7.000000000000109                                 5.000000000000139                                 293811.05842481874+8.162399980071969i             17997.835142981487                                1.5137278217544115E-14
1                                                 7.000000000000109                                 5.000000000000139                                 440791.3108166016+12.239029903473979i             18007.608212947787                                4.270444342305974E-14
1                                                 7.000000000000109                                 5.000000000000139                                 587865.6673068234+16.253368833304634i             18084.42524549961                                 8.71731882871352E-14
1                                                 7.000000000000064                                 7.000000000000064                                 146867.36000458486+4.079675815035573i             17999.881199299547                                2.82121503326E-15
1                                                 7.000000000000064                                 7.000000000000064                                 293766.2409785324+8.160357263125759i              17999.59435023659                                 1.5109331153049465E-14
1                                                 7.000000000000064                                 7.000000000000064                                 440725.91379802336+12.252672874529841i            17984.888616188626                                4.267589510716725E-14
1                                                 7.000000000000064                                 7.000000000000064                                 587782.4720269289+28.20778984691497i              10418.796992194033                                7.784768708954823E-14
1                                                 7.000000000000006                                 9.000000000000306                                 146860.0216832973+4.0793226853199815i             18000.53991950589                                 2.8168273186040374E-15
1                                                 7.000000000000006                                 9.000000000000306                                 293745.40281776345+8.160489299545814i             17998.026345927054                                1.5091948676673255E-14
1                                                 7.000000000000006                                 9.000000000000306                                 440693.86815139855+12.236755622888802i            18006.973487608895                                4.2649535600938386E-14
1                                                 7.000000000000006                                 9.000000000000306                                 587736.3170932711+16.27933487874612i              18051.607190063514                                7.583815501106144E-14
3.0000000000000075                                3.0000000000000075                                4.999999999999948                                 146882.53228150104+4.080045813872022i             18000.108207377056                                2.825629720309629E-15
3.0000000000000075                                3.0000000000000075                                4.999999999999948                                 293794.1275900352+8.160480125157243i              18001.031991017437                                1.5123428565530897E-14
3.0000000000000075                                3.0000000000000075                                4.999999999999948                                 440768.1054621544+12.244919342188226i             17997.999543514463                                4.266847235244874E-14
3.0000000000000075                                3.0000000000000075                                4.999999999999948                                 587835.9245988379+16.486759325317344i             17827.5157961501                                  8.728524001829021E-14
2.999999999999976                                 2.999999999999976                                 7.0000000000001                                   146862.82012720712+4.079362122086558i             18000.70890153007                                 2.817145494602413E-15
2.999999999999976                                 2.999999999999976                                 7.0000000000001                                   293754.8011123663+8.162401045547652i              17994.386668405412                                1.5093785351473577E-14
2.999999999999976                                 2.999999999999976                                 7.0000000000001                                   440708.72297383245+12.236489206184466i            18007.97252986165                                 4.26309633162318E-14
2.999999999999976                                 2.999999999999976                                 7.0000000000001                                   587755.6057674447+16.891228413906497i             17398.249297355418                                8.112290717189191E-14
2.9999999999999676                                2.9999999999999676                                9.000000000000192                                 146856.71591058653+4.079184510306553i             18000.74445511544                                 2.8124812252446038E-15
2.9999999999999676                                2.9999999999999676                                9.000000000000192                                 293737.96881878044+8.159278612406453i             18000.24136767191                                 1.5075191088966198E-14
2.9999999999999676                                2.9999999999999676                                9.000000000000192                                 440682.52983340085+12.240744229521649i            18000.64283553009                                 4.2608568589692384E-14
2.9999999999999676                                2.9999999999999676                                9.000000000000192                                 587721.814185496+17.34096718892744i               16946.050580176056                                8.317175880295548E-14
3.0000000000000777                                5.000000000000128                                 5.000000000000128                                 146879.10022809898+4.07990747076496i              18000.297957805877                                2.824711852602504E-15
3.0000000000000777                                5.000000000000128                                 5.000000000000128                                 293787.8241779885+8.160852881219236i              17999.823575676175                                1.5119357395266155E-14
3.0000000000000777                                5.000000000000128                                 5.000000000000128                                 440758.81480178656+12.2429429518431i              18000.52554910584                                 4.2659798152252606E-14
3.0000000000000777                                5.000000000000128                                 5.000000000000128                                 587823.5336490469+16.339512478595086i             17987.792916682996                                8.603343012663026E-14
3.0000000000000853                                5.000000000000042                                 7.000000000000278                                 146862.6142794915+4.079567416180437i              17999.777831468138                                2.816223997998861E-15
3.0000000000000853                                5.000000000000042                                 7.000000000000278                                 293749.53646294336+8.158895756545022i             18001.794925944778                                1.5089567779446498E-14
3.0000000000000853                                5.000000000000042                                 7.000000000000278                                 440700.0107597405+12.243938913499747i             17996.659974913815                                4.262275059486221E-14
3.0000000000000853                                5.000000000000042                                 7.000000000000278                                 587744.6691035974+16.331652378833304i             17994.035614710738                                7.880318472438242E-14
2.9999999999999063                                4.999999999999832                                 8.999999999999734                                 146855.4644103632+4.078993867960218i              18001.432358589107                                2.8114639239357436E-15
2.9999999999999063                                4.999999999999832                                 8.999999999999734                                 293730.92232852423+8.158077612989851i             18002.45941892168                                 1.5070457694665485E-14
2.9999999999999063                                4.999999999999832                                 8.999999999999734                                 440671.00841282285+12.26828375519241i             17959.765897422076                                4.2597909676210786E-14
2.9999999999999063                                4.999999999999832                                 8.999999999999734                                 587703.9054825939+16.270217605825742i             18060.726651625428                                7.740435883419896E-14
3.0000000000000244                                6.999999999999963                                 5.000000000000056                                 146881.59862089565+4.079749069518236i             18001.303035806966                                2.8244952142680366E-15
3.0000000000000244                                6.999999999999963                                 5.000000000000056                                 293787.1951824996+8.160552976886937i              18000.44653925941                                 1.5119506478794368E-14
3.0000000000000244                                6.999999999999963                                 5.000000000000056                                 440756.104462996+12.238316802120377i              18007.219113114712                                4.265795967135478E-14
3.0000000000000244                                6.999999999999963                                 5.000000000000056                                 587819.0330972725+16.327787194267685i             18000.572462863536                                8.735930950446227E-14
2.999999999999948                                 6.9999999999998765                                6.9999999999998765                                146855.7794416493+4.0794597762714755i             17999.415056846585                                2.8157548524250483E-15
2.999999999999948                                 6.9999999999998765                                6.9999999999998765                                293745.5337902097+8.159634717051574i              17999.91935768479                                 1.508783657801995E-14
2.999999999999948                                 6.9999999999998765                                6.9999999999998765                                440695.29603942647+12.241766241300706i            17999.661460313797                                4.261951599203999E-14
2.999999999999948                                 6.9999999999998765                                6.9999999999998765                                587739.3771068251+16.327889188472433i             17998.02075830393                                 7.946497837984541E-14
3.0000000000000875                                7.000000000000094                                 9.000000000000027                                 146854.13447627198+4.079051945275261i             18001.013035194737                                2.8111002960795863E-15
3.0000000000000875                                7.000000000000094                                 9.000000000000027                                 293728.6723496129+8.157016895361467i              18004.662495958142                                1.5069137976290586E-14
3.0000000000000875                                7.000000000000094                                 9.000000000000027                                 440668.2800535872+12.244624538518256i             17994.356571218843                                4.259368138907994E-14
3.0000000000000875                                7.000000000000094                                 9.000000000000027                                 587701.2702547365+16.665526144457274i             17632.244705643407                                7.614895658905702E-14
4                                                 2.999999999999987                                 4.999999999999965                                 146880.1365039804+4.080079913946824i              17999.664173476507                                2.8253014705003225E-15
4                                                 2.999999999999987                                 4.999999999999965                                 293791.25100815407+8.160848288512936i             18000.043661005013                                1.512199600865825E-14
4                                                 2.999999999999987                                 4.999999999999965                                 440763.35263600806+12.24352811348768i             17999.85055575838                                 4.2664974875868084E-14
4                                                 2.999999999999987                                 4.999999999999965                                 587829.771617393+16.328054903480925i              18000.60616810103                                 8.734448049816943E-14
4                                                 3.000000000000024                                 6.9999999999999645                                146863.79323541213+4.079282992240822i             18001.17735331931                                 2.8168515367956854E-15
4                                                 3.000000000000024                                 6.9999999999999645                                293752.9821973091+8.159682478727008i              18000.270412675593                                1.5091852720740434E-14
4                                                 3.000000000000024                                 6.9999999999999645                                440705.08514582826+12.241695860369294i            18000.164771800606                                4.2627733922340167E-14
4                                                 3.000000000000024                                 6.9999999999999645                                587751.4109405077+16.3272922432093i               17999.04730635846                                 8.144117701538045E-14
4                                                 3.000000000000048                                 8.999999999999895                                 146854.4771408536+4.079158502972032i              18000.584806136718                                2.8120680143768286E-15
4                                                 3.000000000000048                                 8.999999999999895                                 293735.07819360774+8.15917952758185i              18000.282822595113                                1.5073697740196053E-14
4                                                 3.000000000000048                                 8.999999999999895                                 440678.2766464134+12.24110603079269i              17999.937078311934                                4.260393846502579E-14
4                                                 3.000000000000048                                 8.999999999999895                                 587715.4346649741+16.349427489097412i             17973.5784343797                                  8.345985256001422E-14
4                                                 5.000000000000078                                 5.000000000000078                                 146879.68607722555+4.07988518051442i              18000.468098799105                                2.82446697382928E-15
4                                                 5.000000000000078                                 5.000000000000078                                 293785.86117296625+8.163290451416911i             17994.328568939472                                1.511845197224162E-14
4                                                 5.000000000000078                                 5.000000000000078                                 440755.1825519109+12.23797196257264i              18007.68885154613                                 4.26564661873789E-14
4                                                 5.000000000000078                                 5.000000000000078                                 587820.7981386478+16.534077629522503i             17776.03841320695                                 8.549783132575284E-14
4                                                 5.000000000000138                                 7.00000000000019                                  146860.11878880506+4.079338699466584i             18000.48115740066                                 2.815859605419391E-15
4                                                 5.000000000000138                                 7.00000000000019                                  293746.4539983412+8.157186796699891i              18005.3774247991                                  1.5088400743147E-14
4                                                 5.000000000000138                                 7.00000000000019                                  440695.86774627864+12.246249049755463i            17993.095924955367                                4.261920788315155E-14
4                                                 5.000000000000138                                 7.00000000000019                                  587737.1930328599+16.21841448448097i              18119.44051606485                                 7.881754843355263E-14
4                                                 5.000000000000126                                 8.999999999999902                                 146851.75477964108+4.078982376948852i             18001.02834588429                                 2.8110196258395883E-15
4                                                 5.000000000000126                                 8.999999999999902                                 293727.48908331164+8.159152216568582i             17999.878007353043                                1.5068844922015583E-14
4                                                 5.000000000000126                                 8.999999999999902                                 440666.6885020093+12.252539686552135i             17982.66725818823                                 4.2592660617254047E-14
4                                                 5.000000000000126                                 8.999999999999902                                 587700.6270276434+15.866591605174849i             18520.06535656859                                 7.753514990555146E-14
4                                                 6.9999999999999645                                5.000000000000071                                 146878.92955714295+4.079802493739376i             18000.740205260066                                2.824167519548047E-15
4                                                 6.9999999999999645                                5.000000000000071                                 293784.12559090205+8.160589327128514i             18000.178284566824                                1.5116997726123754E-14
4                                                 6.9999999999999645                                5.000000000000071                                 440751.63431935996+12.243080234568732i            18000.030461079576                                4.2653253863325356E-14
4                                                 6.9999999999999645                                5.000000000000071                                 587813.3780271298+16.328262261300875i             17999.87557219429                                 8.734748647677464E-14
4                                                 7.0000000000001235                                7.0000000000001235                                146857.14822418476+4.079398712543808i             17999.852254282185                                2.8155142986726822E-15
4                                                 7.0000000000001235                                7.0000000000001235                                293743.80931452423+8.159336435332333i             18000.47170763353                                 1.5086449254383765E-14
4                                                 7.0000000000001235                                7.0000000000001235                                440692.24847765407+12.24203115735251i             17999.14747860194                                 4.26158762585327E-14
4                                                 7.0000000000001235                                7.0000000000001235                                587734.6326185133+15.915077629878683i             18464.711460631115                                7.950047869446941E-14
4                                                 7.000000000000571                                 9.000000000000277                                 146847.06179214662+4.079399800865008i             17998.611187977254                                2.8105863807439842E-15
4                                                 7.000000000000571                                 9.000000000000277                                 293724.68233704346+8.15959759146384i              17998.723530456333                                1.5067403467502098E-14
4                                                 7.000000000000571                                 9.000000000000277                                 440663.2194346066+12.23768498931129i              18004.353757247354                                4.259066863070229E-14
4                                                 7.000000000000571                                 9.000000000000277                                 587696.0234191472+14.79108611874707i              19866.5608022617                                  7.652545249719716E-14
