% Model:              3_full.mph
% Version:            COMSOL 5.6.0.401
% Date:               Mar 4 2023, 20:01
% Table:              Eigenfrequencies, Mesh Calibration (Long wire) - 
% d_max                                           d_t_1                                             d_t_2                                             d_beam_w                                          Frequency (Hz)                                    Quality factor for eigenvalue (1)                 abs(solid.Qted) (W)
19999.99999999955                                 2.9999999999999782                                2.9999999999999782                                2.9999999999999782                                146930.72025223143+4.081467421800807i             17999.741890307774                                2.843392900910985E-15
19999.99999999955                                 2.9999999999999782                                2.9999999999999782                                2.9999999999999782                                293892.74222168786+8.163710782078038i             17999.94818942368                                 1.5164552506680907E-14
19999.99999999955                                 2.9999999999999782                                2.9999999999999782                                2.9999999999999782                                440916.34303038893+12.247612394687232i            18000.09376609784                                 4.2660790732505453E-14
19999.99999999955                                 2.9999999999999782                                2.9999999999999782                                2.9999999999999782                                588033.6984128201+16.333623452064348i             18000.711848738352                                9.169722212290345E-14
19999.99999999955                                 2.9999999999999782                                2.9999999999999782                                2.9999999999999782                                735278.5216852996+20.428018563838993i             17996.814507180217                                1.690112701433808E-13
19999.99999999955                                 2.9999999999999782                                2.9999999999999782                                2.9999999999999782                                882686.447697473+24.515884737467925i              18002.337201978815                                2.56184163080411E-13
19999.99999999955                                 2.9999999999999782                                2.9999999999999782                                2.9999999999999782                                1030295.6810129712+28.920159800400857i            17812.75912933759                                 3.385826804674037E-13
19999.99999999955                                 2.9999999999999782                                2.9999999999999782                                2.9999999999999782                                1178144.7907350003-24.702381908411763i            23846.78520280291                                 3.327377410133346E-13
15000.000000000206                                3.000000000000026                                 3.000000000000026                                 3.000000000000026                                 146384.66151894574+4.06620515606658i              18000.1568908239                                  2.7387313360422576E-15
15000.000000000206                                3.000000000000026                                 3.000000000000026                                 3.000000000000026                                 292800.2370816498+8.13334564871518i               17999.98731935758                                 1.4774853144954444E-14
15000.000000000206                                3.000000000000026                                 3.000000000000026                                 3.000000000000026                                 439272.5191057248+12.201843150402949i             18000.252654092375                                4.18240151462064E-14
15000.000000000206                                3.000000000000026                                 3.000000000000026                                 3.000000000000026                                 585831.2932435051+16.27358413219112i              17999.455082690234                                9.000299612426148E-14
15000.000000000206                                3.000000000000026                                 3.000000000000026                                 3.000000000000026                                 732506.3505557823+20.34719310583537i              18000.181812441366                                1.655045525905494E-13
15000.000000000206                                3.000000000000026                                 3.000000000000026                                 3.000000000000026                                 879328.2028715215+24.439385600793315i             17989.981770306076                                2.510096609270458E-13
15000.000000000206                                3.000000000000026                                 3.000000000000026                                 3.000000000000026                                 1026328.3669349377+28.509992108109635i            17999.450211054063                                3.313176759528914E-13
15000.000000000206                                3.000000000000026                                 3.000000000000026                                 3.000000000000026                                 1173506.5261093758+38.694681087191356i            15163.667113124715                                3.3660846609883514E-13
9999.999999999547                                 2.999999999999924                                 2.999999999999924                                 2.999999999999924                                 145891.83280617636+4.052491614680514i             18000.263378420623                                2.5363569286027327E-15
9999.999999999547                                 2.999999999999924                                 2.999999999999924                                 2.999999999999924                                 291810.1480995236+8.10586019964431i               17999.949475585177                                1.4004380200142336E-14
9999.999999999547                                 2.999999999999924                                 2.999999999999924                                 2.999999999999924                                 437783.93732371007+12.160663107652132i            18000.002690981397                                4.019285119301194E-14
9999.999999999547                                 2.999999999999924                                 2.999999999999924                                 2.999999999999924                                 583840.4886625675+16.21787088007374i              17999.911732552802                                8.702346641150576E-14
9999.999999999547                                 2.999999999999924                                 2.999999999999924                                 2.999999999999924                                 730007.533154035+20.2783813172255i                17999.650014813178                                1.6047986106751655E-13
9999.999999999547                                 2.999999999999924                                 2.999999999999924                                 2.999999999999924                                 876313.1866916441+24.342084781925585i             17999.961682457222                                2.445624662751685E-13
9999.999999999547                                 2.999999999999924                                 2.999999999999924                                 2.999999999999924                                 1022785.5321121978+28.334057592369955i            18048.6950867858                                  3.2244789843473594E-13
9999.999999999547                                 2.999999999999924                                 2.999999999999924                                 2.999999999999924                                 1169494.3308063704+68.20674336536929i             8573.157675493556                                 4.111749681722086E-13
19999.999999999796                                3.000000000000006                                 3.000000000000006                                 4.999999999999943                                 146882.39017339866+4.080074811737858i             17999.962862302986                                2.8256326277601502E-15
19999.999999999796                                3.000000000000006                                 3.000000000000006                                 4.999999999999943                                 293794.1226802907+8.16150254752637i               17998.776632700567                                1.5123502640150392E-14
19999.999999999796                                3.000000000000006                                 3.000000000000006                                 4.999999999999943                                 440768.0259100549+12.24222350459763i              18001.959600905797                                4.26688771122201E-14
19999.999999999796                                3.000000000000006                                 3.000000000000006                                 4.999999999999943                                 587835.7741148927+16.327129572253035i             18001.810162451122                                8.72867530362333E-14
19999.999999999796                                3.000000000000006                                 3.000000000000006                                 4.999999999999943                                 735030.9870270983+20.417452231452607i             18000.066283852622                                1.2872352498684876E-13
19999.999999999796                                3.000000000000006                                 3.000000000000006                                 4.999999999999943                                 882389.4027895948+24.512922134347928i             17998.453998129335                                1.7852762596614427E-13
19999.999999999796                                3.000000000000006                                 3.000000000000006                                 4.999999999999943                                 1029950.1960974069+25.28748133091308i             20364.82365759249                                 2.364195923502852E-13
19999.999999999796                                3.000000000000006                                 3.000000000000006                                 4.999999999999943                                 1177757.027217611-122.72847727181295i             4798.222276518473                                 2.9731257763897045E-13
14999.999999999929                                2.9999999999999223                                2.9999999999999223                                4.999999999999797                                 146336.48605253134+4.064951573147219i             17999.782213793205                                2.7202131631368284E-15
14999.999999999929                                2.9999999999999223                                2.9999999999999223                                4.999999999999797                                 292701.6623032539+8.129485403133822i              18002.47173027828                                 1.4740581136201296E-14
14999.999999999929                                2.9999999999999223                                2.9999999999999223                                4.999999999999797                                 439124.2665887712+12.202911661567667i             17992.60204315673                                 4.18396737738595E-14
14999.999999999929                                2.9999999999999223                                2.9999999999999223                                4.999999999999797                                 585633.3982960671+16.2644491565216i               18003.480863698394                                8.597141550297457E-14
14999.999999999929                                2.9999999999999223                                2.9999999999999223                                4.999999999999797                                 732258.9363054951+20.338561715405156i             18001.73843538889                                 1.2646392260074223E-13
14999.999999999929                                2.9999999999999223                                2.9999999999999223                                4.999999999999797                                 879031.3110812113+24.41936440869299i              17998.65255232191                                 1.74858262336745E-13
14999.999999999929                                2.9999999999999223                                2.9999999999999223                                4.999999999999797                                 1025982.0157009071+28.54642955154234i             17970.4087659787                                  2.3141629845915687E-13
14999.999999999929                                2.9999999999999223                                2.9999999999999223                                4.999999999999797                                 1173126.7350718216+24.018309426367814i            24421.509321216712                                1.3928950906860458E-13
10000.00000000041                                 3.0000000000001172                                3.0000000000001172                                5.000000000000199                                 145843.1309506913+4.0511764755873525i             18000.096000454563                                2.5178705019008676E-15
10000.00000000041                                 3.0000000000001172                                3.0000000000001172                                5.000000000000199                                 291711.764899848+8.10292257628947i                18000.404308037738                                1.3967693568676919E-14
10000.00000000041                                 3.0000000000001172                                3.0000000000001172                                5.000000000000199                                 437635.8114540167+12.157250169246458i             17998.963801908372                                4.019649136936326E-14
10000.00000000041                                 3.0000000000001172                                3.0000000000001172                                5.000000000000199                                 583642.7343717006+16.211520587107252i             18000.863374775232                                8.338590665090193E-14
10000.00000000041                                 3.0000000000001172                                3.0000000000001172                                5.000000000000199                                 729760.2388919967+20.272940146875925i             17998.381922034125                                1.2303043819486477E-13
10000.00000000041                                 3.0000000000001172                                3.0000000000001172                                5.000000000000199                                 876016.4376394135+24.32418555330912i              18007.107282575063                                1.7036918477672316E-13
10000.00000000041                                 3.0000000000001172                                3.0000000000001172                                5.000000000000199                                 1022444.7325651575+6.867164545390245i             74444.46145182382                                 2.2516249911602347E-13
10000.00000000041                                 3.0000000000001172                                3.0000000000001172                                5.000000000000199                                 1168827.2748957404+910.862142814791i              641.6049256826763                                 1.917057777672152E-13
20000.000000000207                                2.999999999999977                                 2.999999999999977                                 7.000000000000097                                 146863.29878776846+4.07944837317634i              18000.386982887547                                2.8171587805522603E-15
20000.000000000207                                2.999999999999977                                 2.999999999999977                                 7.000000000000097                                 293754.92011329916+8.159735937185577i             18000.27123271182                                 1.5093747206561318E-14
20000.000000000207                                2.999999999999977                                 2.999999999999977                                 7.000000000000097                                 440708.8378906807+12.242376721376122i             17999.316959474527                                4.2632067338434673E-14
20000.000000000207                                2.999999999999977                                 2.999999999999977                                 7.000000000000097                                 587756.6999213655+16.326747652630694i             17999.80965059687                                 8.127659728110268E-14
20000.000000000207                                2.999999999999977                                 2.999999999999977                                 7.000000000000097                                 734932.1125848982+20.414164509288472i             18000.54350131499                                 1.1998135941124144E-13
20000.000000000207                                2.999999999999977                                 2.999999999999977                                 7.000000000000097                                 882270.9019141142+24.46521791764196i              18031.126983706545                                1.6650054380175317E-13
20000.000000000207                                2.999999999999977                                 2.999999999999977                                 7.000000000000097                                 1029809.2444831725+28.80093470822834i             17878.05248190309                                 2.206055367863314E-13
20000.000000000207                                2.999999999999977                                 2.999999999999977                                 7.000000000000097                                 1178363.7673138878+1870.311818007417i             315.01799752549107                                1.6933294860205682E-13
15000.000000000207                                2.9999999999999907                                2.9999999999999907                                7.000000000000029                                 146319.39140831452+4.06439096556148i              18000.161973604412                                2.711570014158067E-15
15000.000000000207                                2.9999999999999907                                2.9999999999999907                                7.000000000000029                                 292663.64181052055+8.129639876264092i             17999.791273965107                                1.4712628492991445E-14
15000.000000000207                                2.9999999999999907                                2.9999999999999907                                7.000000000000029                                 439065.8359404697+12.19585290051822i              18000.620355211602                                4.1799871102087184E-14
15000.000000000207                                2.9999999999999907                                2.9999999999999907                                7.000000000000029                                 585554.9225849397+16.265205688619353i             18000.231100509573                                8.002583571934015E-14
15000.000000000207                                2.9999999999999907                                2.9999999999999907                                7.000000000000029                                 732160.6019163443+20.337913422122213i             17999.894746330832                                1.178307531603705E-13
15000.000000000207                                2.9999999999999907                                2.9999999999999907                                7.000000000000029                                 878913.1506042706+24.412490869941873i             18001.30013947909                                 1.630405147937194E-13
15000.000000000207                                2.9999999999999907                                2.9999999999999907                                7.000000000000029                                 1025833.9503218997+27.652868983384955i            18548.41808526753                                 2.159777630870128E-13
15000.000000000207                                2.9999999999999907                                2.9999999999999907                                7.000000000000029                                 1173032.5664272674-583.2678608033071i             1005.5693492281347                                2.770388582345256E-13
9999.999999999882                                 2.999999999999942                                 2.999999999999942                                 6.99999999999941                                  145822.84535535565+4.050641315535833i             17999.970127701214                                2.5088025441453836E-15
9999.999999999882                                 2.999999999999942                                 2.999999999999942                                 6.99999999999941                                  291671.91295281536+8.102290543563743i             17999.349158397745                                1.3940819029041292E-14
9999.999999999882                                 2.999999999999942                                 2.999999999999942                                 6.99999999999941                                  437576.3511201403+12.153750101487319i             18001.701016815536                                4.01573312771404E-14
9999.999999999882                                 2.999999999999942                                 2.999999999999942                                 6.99999999999941                                  583563.5243940103+16.211010344374724i             17998.986861311292                                7.76157040637187E-14
9999.999999999882                                 2.999999999999942                                 2.999999999999942                                 6.99999999999941                                  729661.349432245+20.26891286174148i               17999.51863253338                                 1.1462409446605807E-13
9999.999999999882                                 2.999999999999942                                 2.999999999999942                                 6.99999999999941                                  875897.7471202412+24.329737830929332i             18000.55868269088                                 1.5883842417994494E-13
9999.999999999882                                 2.999999999999942                                 2.999999999999942                                 6.99999999999941                                  1022297.3858887813+26.071616064928172i            19605.562296998454                                2.1004358960246702E-13
9999.999999999882                                 2.999999999999942                                 2.999999999999942                                 6.99999999999941                                  1169049.5257593843-432.79880770410426i            1350.569254061467                                 2.6760748592157043E-13
20000.00000000005                                 3.0000000000000844                                5.000000000000073                                 3.0000000000000844                                146929.38811314054+4.081362922194928i             18000.03955959499                                 2.8426413211476026E-15
20000.00000000005                                 3.0000000000000844                                5.000000000000073                                 3.0000000000000844                                293884.9440238401+8.163167663748867i              18000.668130885795                                1.5161252417782474E-14
20000.00000000005                                 3.0000000000000844                                5.000000000000073                                 3.0000000000000844                                440903.2417242646+12.24947767187585i              17996.818049497582                                4.2652809798028074E-14
20000.00000000005                                 3.0000000000000844                                5.000000000000073                                 3.0000000000000844                                588015.5628389633+16.330073586244428i             18004.069599976327                                9.168168955110528E-14
20000.00000000005                                 3.0000000000000844                                5.000000000000073                                 3.0000000000000844                                735255.7753332029+20.429386924124227i             17995.0523739153                                  1.6898310019968975E-13
20000.00000000005                                 3.0000000000000844                                5.000000000000073                                 3.0000000000000844                                882658.8179698451+24.49503185784965i              18017.098795628215                                2.520254321920546E-13
20000.00000000005                                 3.0000000000000844                                5.000000000000073                                 3.0000000000000844                                1030299.2414289609+43.48574099197111i             11846.403187876846                                3.3310472612047154E-13
20000.00000000005                                 3.0000000000000844                                5.000000000000073                                 3.0000000000000844                                1178156.942161648+55.710764170800196i             10573.871671815634                                4.20687556457124E-13
15000.000000000284                                3.0000000000000306                                4.999999999999944                                 3.0000000000000306                                146378.0350255034+4.066034409405005i              18000.09791935431                                 2.737970436579215E-15
15000.000000000284                                3.0000000000000306                                4.999999999999944                                 3.0000000000000306                                292789.5990870728+8.132484163607867i              18001.240039131426                                1.4772224729188898E-14
15000.000000000284                                3.0000000000000306                                4.999999999999944                                 3.0000000000000306                                439257.9964852294+12.204569715142i                17995.636336946547                                4.181581776941511E-14
15000.000000000284                                3.0000000000000306                                4.999999999999944                                 3.0000000000000306                                585812.187271604+16.269616829632817i              18003.257034444818                                8.998876197508753E-14
15000.000000000284                                3.0000000000000306                                4.999999999999944                                 3.0000000000000306                                732482.4330208634+20.342523587457883i             18003.725788290663                                1.6547791398921028E-13
15000.000000000284                                3.0000000000000306                                4.999999999999944                                 3.0000000000000306                                879299.6856552333+24.42231797159126i              18001.970301878267                                2.469402397078597E-13
15000.000000000284                                3.0000000000000306                                4.999999999999944                                 3.0000000000000306                                1026304.1801086906+25.798414419750635i            19890.838316849295                                3.26006695554865E-13
15000.000000000284                                3.0000000000000306                                4.999999999999944                                 3.0000000000000306                                1171201.0300180884-105.36903788078392i            5557.614710989413                                 4.1206106409501E-13
9999.999999999996                                 3.000000000000256                                 5.000000000000142                                 3.000000000000256                                 145886.09920931887+4.052300843793714i             18000.403330463672                                2.535734763993299E-15
9999.999999999996                                 3.000000000000256                                 5.000000000000142                                 3.000000000000256                                 291800.4432161651+8.105576752147265i              17999.98026907112                                 1.4001478757514447E-14
9999.999999999996                                 3.000000000000256                                 5.000000000000142                                 3.000000000000256                                 437769.86770675465+12.160386653398763i            17999.833401039177                                4.018587373514673E-14